#
# Run File created 12/08/2015 5:03:01 PM
#

#
# 
#

# Ch1_Incident WP                     Moving          14.671(x - zero)
# Ch2_Phase WP                        Moving          17.273(x - zero)
# Ch3_OWC WP                          Moving          22.575(x - zero)
# Ch4_OWC Pressure                    Moving          41.623(x - zero)

TITLE="Calibration"
VARIABLES="Time" "Ch1_Incident WP" "Ch2_Phase WP" "Ch3_OWC WP" "Ch4_OWC Pressure" 
ZONE T="Calibration" F=POINT 
0.000000 -0.201395 -0.185819 -0.129875 -0.086480 
1.000000 14.670759 17.272866 22.574672 41.623146 

TITLE="Data"
VARIABLES="Time" "Ch1_Incident WP" "Ch2_Phase WP" "Ch3_OWC WP" "Ch4_OWC Pressure" 
ZONE T="Data" F=POINT 
0.000000 -0.183248 -0.191628 -0.127491 -0.083981 
0.005000 -0.185182 -0.191628 -0.128458 -0.090105 
0.010000 -0.185182 -0.191950 -0.128780 -0.081725 
0.015000 -0.184859 -0.192595 -0.128458 -0.080758 
0.020000 -0.187116 -0.191950 -0.126524 -0.091072 
0.025000 -0.184537 -0.192917 -0.128135 -0.103641 
0.030000 -0.184215 -0.193561 -0.129747 -0.069800 
0.035000 -0.185504 -0.191950 -0.127169 -0.088171 
0.040000 -0.182281 -0.192917 -0.129747 -0.100740 
0.045000 -0.184537 -0.193561 -0.128458 -0.077857 
0.050000 -0.184537 -0.194851 -0.130392 -0.092038 
0.055000 -0.183570 -0.194528 -0.129425 -0.098162 
0.060000 -0.185182 -0.196140 -0.131036 -0.094294 
0.065000 -0.185182 -0.192917 -0.128458 -0.096228 
0.070000 -0.188727 -0.196462 -0.129425 -0.087849 
0.075000 -0.185826 -0.194206 -0.129747 -0.088171 
0.080000 -0.184859 -0.196462 -0.129747 -0.080113 
0.085000 -0.185504 -0.193884 -0.130392 -0.087849 
0.090000 -0.187760 -0.195495 -0.129747 -0.083659 
0.095000 -0.184537 -0.195495 -0.130714 -0.066577 
0.100000 -0.185182 -0.193884 -0.127813 -0.094939 
0.105000 -0.184215 -0.193884 -0.127491 -0.095906 
0.110000 -0.187438 -0.194206 -0.129102 -0.093972 
0.115000 -0.184537 -0.196140 -0.129747 -0.083659 
0.120000 -0.184537 -0.195173 -0.128135 -0.079469 
0.125000 -0.185504 -0.196140 -0.130714 -0.078824 
0.130000 -0.183570 -0.194851 -0.128780 -0.081725 
0.135000 -0.185182 -0.195173 -0.129425 -0.063676 
0.140000 -0.185504 -0.194851 -0.130069 -0.085592 
0.145000 -0.183570 -0.199685 -0.130392 -0.084626 
0.150000 -0.184859 -0.196462 -0.129102 -0.080113 
0.155000 -0.188727 -0.196462 -0.130392 -0.085915 
0.160000 -0.186793 -0.194851 -0.128780 -0.082370 
0.165000 -0.189694 -0.196140 -0.130714 -0.079147 
0.170000 -0.187438 -0.194528 -0.130069 -0.083981 
0.175000 -0.188727 -0.196462 -0.130069 -0.084948 
0.180000 -0.186471 -0.195173 -0.128780 -0.093972 
0.185000 -0.189372 -0.196784 -0.130392 -0.092361 
0.190000 -0.186793 -0.194528 -0.132325 -0.081080 
0.195000 -0.187438 -0.198396 -0.130392 -0.090749 
0.200000 -0.186793 -0.196462 -0.128458 -0.094617 
0.205000 -0.189049 -0.194206 -0.130714 -0.071412 
0.210000 -0.188405 -0.195495 -0.131681 -0.089460 
0.215000 -0.188082 -0.194851 -0.129425 -0.090105 
0.220000 -0.189372 -0.196140 -0.129747 -0.090105 
0.225000 -0.189372 -0.191950 -0.128458 -0.076246 
0.230000 -0.191305 -0.195495 -0.131358 -0.083014 
0.235000 -0.190983 -0.192917 -0.129747 -0.086237 
0.240000 -0.190016 -0.195173 -0.132003 -0.077213 
0.245000 -0.187438 -0.193561 -0.129102 -0.083014 
0.250000 -0.190661 -0.195817 -0.131681 -0.087849 
0.255000 -0.188405 -0.192917 -0.129425 -0.088493 
0.260000 -0.190983 -0.194528 -0.131358 -0.082370 
0.265000 -0.189694 -0.194206 -0.129425 -0.076246 
0.270000 -0.191305 -0.195817 -0.129747 -0.084303 
0.275000 -0.189372 -0.194528 -0.127491 -0.071089 
0.280000 -0.192272 -0.194528 -0.130392 -0.091072 
0.285000 -0.192595 -0.194206 -0.132325 -0.081080 
0.290000 -0.190016 -0.192595 -0.128458 -0.090749 
0.295000 -0.192595 -0.194528 -0.132003 -0.097840 
0.300000 -0.190661 -0.189694 -0.128780 -0.102030 
0.305000 -0.193884 -0.191628 -0.130392 -0.083659 
0.310000 -0.189049 -0.190338 -0.127813 -0.094939 
0.315000 -0.192272 -0.192595 -0.130714 -0.093650 
0.320000 -0.187438 -0.190016 -0.130714 -0.087526 
0.325000 -0.192272 -0.192917 -0.131036 -0.085270 
0.330000 -0.189694 -0.191305 -0.130392 -0.081080 
0.335000 -0.190983 -0.187116 -0.131036 -0.064643 
0.340000 -0.190338 -0.190983 -0.130392 -0.092361 
0.345000 -0.187760 -0.190983 -0.130714 -0.080113 
0.350000 -0.190661 -0.190983 -0.130069 -0.082370 
0.355000 -0.188405 -0.189372 -0.129102 -0.076246 
0.360000 -0.193239 -0.191305 -0.132003 -0.083336 
0.365000 -0.188727 -0.188727 -0.129747 -0.072056 
0.370000 -0.191950 -0.192272 -0.131681 -0.078502 
0.375000 -0.190661 -0.187760 -0.129102 -0.089138 
0.380000 -0.192917 -0.189694 -0.131358 -0.083014 
0.385000 -0.189694 -0.189049 -0.128780 -0.089782 
0.390000 -0.190338 -0.190016 -0.130069 -0.073345 
0.395000 -0.187116 -0.187760 -0.128458 -0.091394 
0.400000 -0.189372 -0.190661 -0.130069 -0.079147 
0.405000 -0.188082 -0.187438 -0.128780 -0.082692 
0.410000 -0.191305 -0.189049 -0.130069 -0.090749 
0.415000 -0.188082 -0.186793 -0.129102 -0.083014 
0.420000 -0.188405 -0.188405 -0.128458 -0.086882 
0.425000 -0.188082 -0.187760 -0.130392 -0.081725 
0.430000 -0.189049 -0.185504 -0.129425 -0.093328 
0.435000 -0.189694 -0.186471 -0.128135 -0.094939 
0.440000 -0.188405 -0.185504 -0.130069 -0.095906 
0.445000 -0.188405 -0.189372 -0.130392 -0.091072 
0.450000 -0.186471 -0.187760 -0.129425 -0.099129 
0.455000 -0.187760 -0.189049 -0.128780 -0.080113 
0.460000 -0.189694 -0.185182 -0.128458 -0.077535 
0.465000 -0.191305 -0.187116 -0.132325 -0.079469 
0.470000 -0.188405 -0.187116 -0.131358 -0.080758 
0.475000 -0.187438 -0.187438 -0.130069 -0.080436 
0.480000 -0.188082 -0.186793 -0.127813 -0.073990 
0.485000 -0.189049 -0.186793 -0.129102 -0.075279 
0.490000 -0.188405 -0.186793 -0.130714 -0.081080 
0.495000 -0.188082 -0.183570 -0.127169 -0.088171 
0.500000 -0.190661 -0.187116 -0.128458 -0.097517 
0.505000 -0.186793 -0.184859 -0.126846 -0.081080 
0.510000 -0.190338 -0.186793 -0.128780 -0.083336 
0.515000 -0.186149 -0.184215 -0.126202 -0.090105 
0.520000 -0.187760 -0.185504 -0.128780 -0.094939 
0.525000 -0.186149 -0.185182 -0.126846 -0.099451 
0.530000 -0.187760 -0.186793 -0.126846 -0.088493 
0.535000 -0.185182 -0.184215 -0.126524 -0.083014 
0.540000 -0.186793 -0.186471 -0.128135 -0.086882 
0.545000 -0.185504 -0.186471 -0.128780 -0.090427 
0.550000 -0.186149 -0.187438 -0.126524 -0.084626 
0.555000 -0.186149 -0.186793 -0.128780 -0.085270 
0.560000 -0.187116 -0.185182 -0.126202 -0.079469 
0.565000 -0.188727 -0.188727 -0.128458 -0.088815 
0.570000 -0.186149 -0.185826 -0.126202 -0.088815 
0.575000 -0.187760 -0.187760 -0.127813 -0.093005 
0.580000 -0.186793 -0.185504 -0.127169 -0.078180 
0.585000 -0.191950 -0.187760 -0.129102 -0.080758 
0.590000 -0.187438 -0.185504 -0.127491 -0.092361 
0.595000 -0.190983 -0.185826 -0.125235 -0.086237 
0.600000 -0.187116 -0.187438 -0.126846 -0.086559 
0.605000 -0.188082 -0.187760 -0.125557 -0.095906 
0.610000 -0.185504 -0.187438 -0.125557 -0.090427 
0.615000 -0.184859 -0.184215 -0.124913 -0.076568 
0.620000 -0.186793 -0.189372 -0.126846 -0.083014 
0.625000 -0.186149 -0.186471 -0.124913 -0.092361 
0.630000 -0.187760 -0.189049 -0.125557 -0.086237 
0.635000 -0.185504 -0.183893 -0.124268 -0.094294 
0.640000 -0.188405 -0.188405 -0.125879 -0.081080 
0.645000 -0.184215 -0.186793 -0.126524 -0.096873 
0.650000 -0.187760 -0.189372 -0.125879 -0.081403 
0.655000 -0.184859 -0.186793 -0.125879 -0.095906 
0.660000 -0.186793 -0.189694 -0.124268 -0.105897 
0.665000 -0.188405 -0.188082 -0.128135 -0.084303 
0.670000 -0.187760 -0.189372 -0.124913 -0.093972 
0.675000 -0.187760 -0.189372 -0.126202 -0.092683 
0.680000 -0.188405 -0.187760 -0.126202 -0.094294 
0.685000 -0.190983 -0.190338 -0.127813 -0.083014 
0.690000 -0.184859 -0.187438 -0.125235 -0.094617 
0.695000 -0.189694 -0.188727 -0.124913 -0.083981 
0.700000 -0.187438 -0.188727 -0.124590 -0.090105 
0.705000 -0.190983 -0.190338 -0.128780 -0.088171 
0.710000 -0.186793 -0.187438 -0.126524 -0.090105 
0.715000 -0.187116 -0.188405 -0.124913 -0.090105 
0.720000 -0.187760 -0.189372 -0.124913 -0.077535 
0.725000 -0.189049 -0.191305 -0.124268 -0.082370 
0.730000 -0.188082 -0.190016 -0.125235 -0.090427 
0.735000 -0.184859 -0.184859 -0.122334 -0.083336 
0.740000 -0.189049 -0.190338 -0.125557 -0.083336 
0.745000 -0.188405 -0.189049 -0.125557 -0.090749 
0.750000 -0.189694 -0.192917 -0.124913 -0.073668 
0.755000 -0.185504 -0.190016 -0.122334 -0.076568 
0.760000 -0.190016 -0.192595 -0.125557 -0.088815 
0.765000 -0.189049 -0.192595 -0.124590 -0.090427 
0.770000 -0.190338 -0.192595 -0.124590 -0.078502 
0.775000 -0.188082 -0.189694 -0.125235 -0.085915 
0.780000 -0.190016 -0.192917 -0.124913 -0.087204 
0.785000 -0.189694 -0.194206 -0.123946 -0.097840 
0.790000 -0.189694 -0.190661 -0.125879 -0.071412 
0.795000 -0.189694 -0.191950 -0.124268 -0.085592 
0.800000 -0.187760 -0.190661 -0.122979 -0.082692 
0.805000 -0.190016 -0.192595 -0.124590 -0.093328 
0.810000 -0.186471 -0.191950 -0.122012 -0.094939 
0.815000 -0.188082 -0.192595 -0.124268 -0.089782 
0.820000 -0.185182 -0.191628 -0.122979 -0.082692 
0.825000 -0.192917 -0.194206 -0.125235 -0.099451 
0.830000 -0.188405 -0.192272 -0.121690 -0.086237 
0.835000 -0.191305 -0.192917 -0.122012 -0.092683 
0.840000 -0.191950 -0.192595 -0.123623 -0.094939 
0.845000 -0.191628 -0.194206 -0.124913 -0.079147 
0.850000 -0.186471 -0.192272 -0.123301 -0.106542 
0.855000 -0.188727 -0.193239 -0.121045 -0.083014 
0.860000 -0.189694 -0.193561 -0.124913 -0.080758 
0.865000 -0.192595 -0.193884 -0.123623 -0.079791 
0.870000 -0.190338 -0.192595 -0.123301 -0.075279 
0.875000 -0.188082 -0.191628 -0.122979 -0.087204 
0.880000 -0.190338 -0.194851 -0.124590 -0.084948 
0.885000 -0.192272 -0.195173 -0.124913 -0.094939 
0.890000 -0.191305 -0.194206 -0.124268 -0.105575 
0.895000 -0.188405 -0.191305 -0.122979 -0.088815 
0.900000 -0.193239 -0.194851 -0.125879 -0.091716 
0.905000 -0.193239 -0.192595 -0.124268 -0.087526 
0.910000 -0.192272 -0.193561 -0.122656 -0.088493 
0.915000 -0.192272 -0.190016 -0.122012 -0.085915 
0.920000 -0.191628 -0.195173 -0.125879 -0.086237 
0.925000 -0.189372 -0.192595 -0.121045 -0.083659 
0.930000 -0.190016 -0.193239 -0.124268 -0.089460 
0.935000 -0.187760 -0.191305 -0.121045 -0.091072 
0.940000 -0.193239 -0.192595 -0.124913 -0.089782 
0.945000 -0.188405 -0.193884 -0.122656 -0.083981 
0.950000 -0.191305 -0.194206 -0.125235 -0.088493 
0.955000 -0.188082 -0.190661 -0.120723 -0.085915 
0.960000 -0.191305 -0.193884 -0.125557 -0.078502 
0.965000 -0.191305 -0.193239 -0.125235 -0.085915 
0.970000 -0.190338 -0.192272 -0.124913 -0.086237 
0.975000 -0.191628 -0.193561 -0.123301 -0.102030 
0.980000 -0.191305 -0.194206 -0.124913 -0.082692 
0.985000 -0.192595 -0.194528 -0.125557 -0.102996 
0.990000 -0.190983 -0.190983 -0.123623 -0.084303 
0.995000 -0.190661 -0.191305 -0.125879 -0.092683 
1.000000 -0.191305 -0.191628 -0.124913 -0.084626 
1.005000 -0.192595 -0.195173 -0.125557 -0.088815 
1.010000 -0.188082 -0.191628 -0.121045 -0.089138 
1.015000 -0.190661 -0.191305 -0.123946 -0.081725 
1.020000 -0.190016 -0.190016 -0.124268 -0.076568 
1.025000 -0.192595 -0.193561 -0.126846 -0.083014 
1.030000 -0.186793 -0.188082 -0.122979 -0.086882 
1.035000 -0.191950 -0.189694 -0.124590 -0.098162 
1.040000 -0.190338 -0.189372 -0.124268 -0.086559 
1.045000 -0.191950 -0.194528 -0.124913 -0.083659 
1.050000 -0.188405 -0.191950 -0.123946 -0.085592 
1.055000 -0.188727 -0.191628 -0.124913 -0.082047 
1.060000 -0.190661 -0.193884 -0.124590 -0.084303 
1.065000 -0.191628 -0.191950 -0.124268 -0.081725 
1.070000 -0.190661 -0.190016 -0.123623 -0.079147 
1.075000 -0.188405 -0.191628 -0.122334 -0.093005 
1.080000 -0.189372 -0.193884 -0.127491 -0.085592 
1.085000 -0.191305 -0.190983 -0.125557 -0.095261 
1.090000 -0.190338 -0.191950 -0.124268 -0.091394 
1.095000 -0.188082 -0.188727 -0.123301 -0.073668 
1.100000 -0.194851 -0.194206 -0.127491 -0.085592 
1.105000 -0.190016 -0.191950 -0.123301 -0.080113 
1.110000 -0.190016 -0.192272 -0.124268 -0.086882 
1.115000 -0.187116 -0.190661 -0.121690 -0.083336 
1.120000 -0.193561 -0.191305 -0.125879 -0.088815 
1.125000 -0.188082 -0.188727 -0.124590 -0.086559 
1.130000 -0.189049 -0.190016 -0.123623 -0.098807 
1.135000 -0.185826 -0.187116 -0.122979 -0.100096 
1.140000 -0.189694 -0.192272 -0.126846 -0.082692 
1.145000 -0.187438 -0.190338 -0.125879 -0.088815 
1.150000 -0.191628 -0.190338 -0.124913 -0.086882 
1.155000 -0.186793 -0.189372 -0.124913 -0.082047 
1.160000 -0.190338 -0.192917 -0.126202 -0.090105 
1.165000 -0.188082 -0.190338 -0.126524 -0.084948 
1.170000 -0.189049 -0.190016 -0.124913 -0.090427 
1.175000 -0.188405 -0.188082 -0.126846 -0.092683 
1.180000 -0.192272 -0.191305 -0.126846 -0.085915 
1.185000 -0.190338 -0.190016 -0.125557 -0.089782 
1.190000 -0.189694 -0.190016 -0.124913 -0.079147 
1.195000 -0.192272 -0.189694 -0.123946 -0.083659 
1.200000 -0.191305 -0.193884 -0.125879 -0.085915 
1.205000 -0.190016 -0.191628 -0.127169 -0.082047 
1.210000 -0.186793 -0.187760 -0.124590 -0.091072 
1.215000 -0.186793 -0.188405 -0.125557 -0.088493 
1.220000 -0.190983 -0.189694 -0.125879 -0.084626 
1.225000 -0.187760 -0.190983 -0.125235 -0.095906 
1.230000 -0.183893 -0.189694 -0.123301 -0.086559 
1.235000 -0.187116 -0.189372 -0.125235 -0.091716 
1.240000 -0.186149 -0.190983 -0.126524 -0.083981 
1.245000 -0.186149 -0.190016 -0.126846 -0.097195 
1.250000 -0.185826 -0.187116 -0.122979 -0.080436 
1.255000 -0.185504 -0.190016 -0.126524 -0.089460 
1.260000 -0.189049 -0.191628 -0.127169 -0.088815 
1.265000 -0.187116 -0.189694 -0.127169 -0.084948 
1.270000 -0.185182 -0.186793 -0.124268 -0.084626 
1.275000 -0.189049 -0.189049 -0.125879 -0.090749 
1.280000 -0.188727 -0.192272 -0.125557 -0.096228 
1.285000 -0.189372 -0.190983 -0.127169 -0.084948 
1.290000 -0.185504 -0.187760 -0.126524 -0.098484 
1.295000 -0.187760 -0.191305 -0.128135 -0.071412 
1.300000 -0.189694 -0.191950 -0.128135 -0.079147 
1.305000 -0.187438 -0.192272 -0.126524 -0.095584 
1.310000 -0.183893 -0.187438 -0.122334 -0.100096 
1.315000 -0.188727 -0.189049 -0.126846 -0.081403 
1.320000 -0.188405 -0.189694 -0.126202 -0.073668 
1.325000 -0.186793 -0.192272 -0.125879 -0.097840 
1.330000 -0.184215 -0.187438 -0.122012 -0.083981 
1.335000 -0.188082 -0.189372 -0.126202 -0.085915 
1.340000 -0.184859 -0.189694 -0.128135 -0.084948 
1.345000 -0.185182 -0.189049 -0.127491 -0.086882 
1.350000 -0.185182 -0.184859 -0.124268 -0.083659 
1.355000 -0.186793 -0.188082 -0.129102 -0.081403 
1.360000 -0.187760 -0.188727 -0.128458 -0.071412 
1.365000 -0.188082 -0.190983 -0.129425 -0.085270 
1.370000 -0.184537 -0.188082 -0.123946 -0.087204 
1.375000 -0.187116 -0.191305 -0.129102 -0.091716 
1.380000 -0.189372 -0.189049 -0.128780 -0.079791 
1.385000 -0.191305 -0.190338 -0.128135 -0.089782 
1.390000 -0.186471 -0.185504 -0.127169 -0.084948 
1.395000 -0.190338 -0.189049 -0.130392 -0.093972 
1.400000 -0.189372 -0.189694 -0.127813 -0.097840 
1.405000 -0.190983 -0.190661 -0.129102 -0.076568 
1.410000 -0.185504 -0.185826 -0.125557 -0.084626 
1.415000 -0.191950 -0.187760 -0.128458 -0.083659 
1.420000 -0.189372 -0.189694 -0.127491 -0.085270 
1.425000 -0.191950 -0.189694 -0.127813 -0.089138 
1.430000 -0.186471 -0.185826 -0.124913 -0.087849 
1.435000 -0.189049 -0.188727 -0.126524 -0.092038 
1.440000 -0.191305 -0.189372 -0.129425 -0.089460 
1.445000 -0.188405 -0.188727 -0.129425 -0.076891 
1.450000 -0.188082 -0.186471 -0.125557 -0.083336 
1.455000 -0.192272 -0.185504 -0.129102 -0.093005 
1.460000 -0.190338 -0.189694 -0.130069 -0.091716 
1.465000 -0.189049 -0.190016 -0.128780 -0.105253 
1.470000 -0.189049 -0.186471 -0.127169 -0.102996 
1.475000 -0.189694 -0.187760 -0.128780 -0.077857 
1.480000 -0.192595 -0.191628 -0.131358 -0.090427 
1.485000 -0.192917 -0.189372 -0.128458 -0.098807 
1.490000 -0.189049 -0.186149 -0.126846 -0.107831 
1.495000 -0.192917 -0.187760 -0.130714 -0.086559 
1.500000 -0.192272 -0.190983 -0.131036 -0.077535 
1.505000 -0.194206 -0.189049 -0.129425 -0.079147 
1.510000 -0.192595 -0.183570 -0.127491 -0.067866 
1.515000 -0.191628 -0.187116 -0.129425 -0.091072 
1.520000 -0.192272 -0.188727 -0.130392 -0.090105 
1.525000 -0.191950 -0.188405 -0.127813 -0.079147 
1.530000 -0.191305 -0.185826 -0.125235 -0.086237 
1.535000 -0.194528 -0.187438 -0.129425 -0.086882 
1.540000 -0.190661 -0.187760 -0.127813 -0.093328 
1.545000 -0.192272 -0.188727 -0.129102 -0.085270 
1.550000 -0.189049 -0.183893 -0.127813 -0.085915 
1.555000 -0.191628 -0.186471 -0.132003 -0.086882 
1.560000 -0.192272 -0.189049 -0.129425 -0.092683 
1.565000 -0.190983 -0.187760 -0.129747 -0.077535 
1.570000 -0.186471 -0.183570 -0.128458 -0.093972 
1.575000 -0.193561 -0.186471 -0.131681 -0.076891 
1.580000 -0.192595 -0.188727 -0.131036 -0.091716 
1.585000 -0.191305 -0.187438 -0.130714 -0.080758 
1.590000 -0.189049 -0.184859 -0.127491 -0.091072 
1.595000 -0.194206 -0.188727 -0.129102 -0.090105 
1.600000 -0.193561 -0.187116 -0.130392 -0.093328 
1.605000 -0.193561 -0.186793 -0.132003 -0.088171 
1.610000 -0.190338 -0.185182 -0.127491 -0.079791 
1.615000 -0.191950 -0.186793 -0.129102 -0.090749 
1.620000 -0.192272 -0.186793 -0.130392 -0.089782 
1.625000 -0.190016 -0.184215 -0.131036 -0.102996 
1.630000 -0.188727 -0.182603 -0.127491 -0.086559 
1.635000 -0.191628 -0.184859 -0.128780 -0.087849 
1.640000 -0.192272 -0.185504 -0.129747 -0.087849 
1.645000 -0.189694 -0.185826 -0.129425 -0.085915 
1.650000 -0.188082 -0.183248 -0.129747 -0.079791 
1.655000 -0.189049 -0.184859 -0.130392 -0.097840 
1.660000 -0.190661 -0.189694 -0.130392 -0.086882 
1.665000 -0.188405 -0.182926 -0.129747 -0.074634 
1.670000 -0.188727 -0.185504 -0.130069 -0.091716 
1.675000 -0.190338 -0.184859 -0.131358 -0.092683 
1.680000 -0.192595 -0.187760 -0.134259 -0.082692 
1.685000 -0.189694 -0.185826 -0.131358 -0.086882 
1.690000 -0.190338 -0.186793 -0.130069 -0.080113 
1.695000 -0.188082 -0.184215 -0.130714 -0.091394 
1.700000 -0.192595 -0.189049 -0.132648 -0.090427 
1.705000 -0.190016 -0.185826 -0.130392 -0.085915 
1.710000 -0.189372 -0.186793 -0.129425 -0.080436 
1.715000 -0.189372 -0.185182 -0.130392 -0.075601 
1.720000 -0.192595 -0.188082 -0.132003 -0.103963 
1.725000 -0.186471 -0.184859 -0.129425 -0.084303 
1.730000 -0.190016 -0.185504 -0.129102 -0.073345 
1.735000 -0.189049 -0.182926 -0.130714 -0.079147 
1.740000 -0.188405 -0.187116 -0.129747 -0.089460 
1.745000 -0.186471 -0.186149 -0.130069 -0.088171 
1.750000 -0.186471 -0.184537 -0.128458 -0.088171 
1.755000 -0.186793 -0.186793 -0.130714 -0.087204 
1.760000 -0.186793 -0.185826 -0.129425 -0.083014 
1.765000 -0.187116 -0.189372 -0.133614 -0.083336 
1.770000 -0.181636 -0.188082 -0.130069 -0.085915 
1.775000 -0.186149 -0.189372 -0.132648 -0.090749 
1.780000 -0.187116 -0.189372 -0.131036 -0.080436 
1.785000 -0.187760 -0.190661 -0.133292 -0.080758 
1.790000 -0.184215 -0.189049 -0.128780 -0.077213 
1.795000 -0.189372 -0.190983 -0.132003 -0.086237 
1.800000 -0.188082 -0.190661 -0.129425 -0.088815 
1.805000 -0.188727 -0.191950 -0.130714 -0.095584 
1.810000 -0.187438 -0.188727 -0.127491 -0.083014 
1.815000 -0.188727 -0.191305 -0.129102 -0.090105 
1.820000 -0.189372 -0.190016 -0.131681 -0.093005 
1.825000 -0.188082 -0.190338 -0.128780 -0.093005 
1.830000 -0.188405 -0.188727 -0.129425 -0.092361 
1.835000 -0.185826 -0.189372 -0.130069 -0.082047 
1.840000 -0.188727 -0.191305 -0.131036 -0.097195 
1.845000 -0.186149 -0.189694 -0.129747 -0.088171 
1.850000 -0.185504 -0.190661 -0.131358 -0.094617 
1.855000 -0.184537 -0.190661 -0.128135 -0.075601 
1.860000 -0.186471 -0.194206 -0.131681 -0.086237 
1.865000 -0.185504 -0.191628 -0.130069 -0.082370 
1.870000 -0.185504 -0.192272 -0.129425 -0.090105 
1.875000 -0.187116 -0.190983 -0.130392 -0.088815 
1.880000 -0.189694 -0.192595 -0.133292 -0.085270 
1.885000 -0.188727 -0.193239 -0.131036 -0.081725 
1.890000 -0.187760 -0.192272 -0.130069 -0.078502 
1.895000 -0.189049 -0.193884 -0.130069 -0.074957 
1.900000 -0.191628 -0.193884 -0.128780 -0.080113 
1.905000 -0.190983 -0.195817 -0.131036 -0.091072 
1.910000 -0.187116 -0.195173 -0.127169 -0.088171 
1.915000 -0.190983 -0.194851 -0.129425 -0.083336 
1.920000 -0.189049 -0.193239 -0.131036 -0.081080 
1.925000 -0.190016 -0.197107 -0.129747 -0.088171 
1.930000 -0.190016 -0.193239 -0.127491 -0.088493 
1.935000 -0.190338 -0.194206 -0.129102 -0.084948 
1.940000 -0.187116 -0.194206 -0.129425 -0.093650 
1.945000 -0.191305 -0.194851 -0.129425 -0.088815 
1.950000 -0.187760 -0.190338 -0.127169 -0.081080 
1.955000 -0.189694 -0.195817 -0.129747 -0.082370 
1.960000 -0.190016 -0.194206 -0.129425 -0.077535 
1.965000 -0.190983 -0.195817 -0.131358 -0.087526 
1.970000 -0.185182 -0.192917 -0.129747 -0.086882 
1.975000 -0.190983 -0.194851 -0.131036 -0.092038 
1.980000 -0.189372 -0.196140 -0.130392 -0.087849 
1.985000 -0.190661 -0.198718 -0.129425 -0.085270 
1.990000 -0.189694 -0.194528 -0.127169 -0.091072 
1.995000 -0.191628 -0.196462 -0.129425 -0.092683 
2.000000 -0.191628 -0.197751 -0.130392 -0.085915 
2.005000 -0.191628 -0.197751 -0.130392 -0.084303 
2.010000 -0.191305 -0.193884 -0.127491 -0.080436 
2.015000 -0.193239 -0.196140 -0.126524 -0.081725 
2.020000 -0.194528 -0.195173 -0.128458 -0.084948 
2.025000 -0.194528 -0.195495 -0.128458 -0.076891 
2.030000 -0.190016 -0.195173 -0.125879 -0.087204 
2.035000 -0.190661 -0.192595 -0.125235 -0.094939 
2.040000 -0.189694 -0.195495 -0.127491 -0.097840 
2.045000 -0.190983 -0.195495 -0.126202 -0.075279 
2.050000 -0.189372 -0.194528 -0.126202 -0.075924 
2.055000 -0.190983 -0.192917 -0.125879 -0.080758 
2.060000 -0.190661 -0.197751 -0.128458 -0.091072 
2.065000 -0.192272 -0.192917 -0.127169 -0.078502 
2.070000 -0.191628 -0.195495 -0.125235 -0.093005 
2.075000 -0.189694 -0.192272 -0.126846 -0.087204 
2.080000 -0.191950 -0.197107 -0.129747 -0.078824 
2.085000 -0.188405 -0.194851 -0.123946 -0.099129 
2.090000 -0.193884 -0.194528 -0.128135 -0.089138 
2.095000 -0.190661 -0.193561 -0.126202 -0.081725 
2.100000 -0.196140 -0.195173 -0.129425 -0.080436 
2.105000 -0.190661 -0.194528 -0.126846 -0.076246 
2.110000 -0.193884 -0.193239 -0.126846 -0.096873 
2.115000 -0.188727 -0.192917 -0.124913 -0.083981 
2.120000 -0.193884 -0.194528 -0.128135 -0.079469 
2.125000 -0.192272 -0.193239 -0.126524 -0.074634 
2.130000 -0.192595 -0.191628 -0.126846 -0.066255 
2.135000 -0.190983 -0.191628 -0.124913 -0.087204 
2.140000 -0.190983 -0.191950 -0.124913 -0.084948 
2.145000 -0.193884 -0.191305 -0.125557 -0.084303 
2.150000 -0.190983 -0.188727 -0.122979 -0.081403 
2.155000 -0.189694 -0.190661 -0.124590 -0.096228 
2.160000 -0.190661 -0.189694 -0.125235 -0.087204 
2.165000 -0.190016 -0.191628 -0.128458 -0.092361 
2.170000 -0.187438 -0.187760 -0.125557 -0.080758 
2.175000 -0.189694 -0.189694 -0.127813 -0.092038 
2.180000 -0.188405 -0.190661 -0.126524 -0.082370 
2.185000 -0.189372 -0.192272 -0.127491 -0.083336 
2.190000 -0.189049 -0.187760 -0.124590 -0.067544 
2.195000 -0.190661 -0.189372 -0.127491 -0.095261 
2.200000 -0.188082 -0.187116 -0.125235 -0.086559 
2.205000 -0.192595 -0.190338 -0.126524 -0.082370 
2.210000 -0.191628 -0.185826 -0.124590 -0.092038 
2.215000 -0.190661 -0.186149 -0.125879 -0.079791 
2.220000 -0.188405 -0.185504 -0.124590 -0.090427 
2.225000 -0.191628 -0.189372 -0.126202 -0.087204 
2.230000 -0.189372 -0.185826 -0.123946 -0.101385 
2.235000 -0.188082 -0.185504 -0.124590 -0.095906 
2.240000 -0.188082 -0.182603 -0.124590 -0.076568 
2.245000 -0.191305 -0.187760 -0.126524 -0.093972 
2.250000 -0.184859 -0.183893 -0.122656 -0.071734 
2.255000 -0.189694 -0.185826 -0.124913 -0.070445 
2.260000 -0.187438 -0.182926 -0.124913 -0.082047 
2.265000 -0.189694 -0.186149 -0.125557 -0.089460 
2.270000 -0.184537 -0.182281 -0.123301 -0.086237 
2.275000 -0.186793 -0.184537 -0.124268 -0.081725 
2.280000 -0.187760 -0.182926 -0.124913 -0.088815 
2.285000 -0.190016 -0.185182 -0.125879 -0.087526 
2.290000 -0.187438 -0.180992 -0.124913 -0.088493 
2.295000 -0.188405 -0.182603 -0.125557 -0.093650 
2.300000 -0.188082 -0.184215 -0.126202 -0.088493 
2.305000 -0.190338 -0.183893 -0.125557 -0.075601 
2.310000 -0.188405 -0.181959 -0.126524 -0.077535 
2.315000 -0.187760 -0.182281 -0.124268 -0.085915 
2.320000 -0.192917 -0.182603 -0.128135 -0.079147 
2.325000 -0.189372 -0.183248 -0.123623 -0.090749 
2.330000 -0.189049 -0.179703 -0.123946 -0.082370 
2.335000 -0.187760 -0.180025 -0.122334 -0.081403 
2.340000 -0.187116 -0.181959 -0.122979 -0.093005 
2.345000 -0.187116 -0.181636 -0.121690 -0.088493 
2.350000 -0.186793 -0.179703 -0.123623 -0.083014 
2.355000 -0.183893 -0.178736 -0.121690 -0.084626 
2.360000 -0.188727 -0.179703 -0.124913 -0.089460 
2.365000 -0.187116 -0.179703 -0.122656 -0.075279 
2.370000 -0.186149 -0.180670 -0.122656 -0.097195 
2.375000 -0.185182 -0.177124 -0.122656 -0.077535 
2.380000 -0.189049 -0.179380 -0.124590 -0.096873 
2.385000 -0.189049 -0.180025 -0.125879 -0.083981 
2.390000 -0.189049 -0.179703 -0.124913 -0.074957 
2.395000 -0.186793 -0.177447 -0.123623 -0.070445 
2.400000 -0.189694 -0.182603 -0.127169 -0.088171 
2.405000 -0.188405 -0.182603 -0.124590 -0.090749 
2.410000 -0.190016 -0.180992 -0.122334 -0.076891 
2.415000 -0.185182 -0.180025 -0.121367 -0.089782 
2.420000 -0.191305 -0.184537 -0.122979 -0.080436 
2.425000 -0.188727 -0.180670 -0.124268 -0.079791 
2.430000 -0.189694 -0.179058 -0.124590 -0.094939 
2.435000 -0.185826 -0.178414 -0.121367 -0.083336 
2.440000 -0.188405 -0.181959 -0.124268 -0.083014 
2.445000 -0.189372 -0.180992 -0.123301 -0.092683 
2.450000 -0.186149 -0.178414 -0.123623 -0.084626 
2.455000 -0.186471 -0.179058 -0.122334 -0.092683 
2.460000 -0.188405 -0.180347 -0.124268 -0.061098 
2.465000 -0.187760 -0.182281 -0.125235 -0.096551 
2.470000 -0.187760 -0.181636 -0.122656 -0.086882 
2.475000 -0.187760 -0.180347 -0.123623 -0.089460 
2.480000 -0.187760 -0.183570 -0.125557 -0.095261 
2.485000 -0.189372 -0.185504 -0.125235 -0.086882 
2.490000 -0.189372 -0.181636 -0.124590 -0.079147 
2.495000 -0.187760 -0.182603 -0.123301 -0.088171 
2.500000 -0.190338 -0.184537 -0.124590 -0.084626 
2.505000 -0.190983 -0.186149 -0.125879 -0.077535 
2.510000 -0.187760 -0.185182 -0.122012 -0.082047 
2.515000 -0.190016 -0.184215 -0.124268 -0.082370 
2.520000 -0.190338 -0.187116 -0.124590 -0.091716 
2.525000 -0.192917 -0.187760 -0.125235 -0.073990 
2.530000 -0.190016 -0.183893 -0.122656 -0.084948 
2.535000 -0.190661 -0.185826 -0.122334 -0.093328 
2.540000 -0.187438 -0.186471 -0.122012 -0.083981 
2.545000 -0.190983 -0.188082 -0.124590 -0.092683 
2.550000 -0.188082 -0.184215 -0.122334 -0.098484 
2.555000 -0.186793 -0.185504 -0.123946 -0.097840 
2.560000 -0.187116 -0.186471 -0.123946 -0.089138 
2.565000 -0.188727 -0.190016 -0.125557 -0.084948 
2.570000 -0.185182 -0.186149 -0.124268 -0.095584 
2.575000 -0.187760 -0.188727 -0.124913 -0.078502 
2.580000 -0.187438 -0.189694 -0.123946 -0.090749 
2.585000 -0.188405 -0.191305 -0.126846 -0.098162 
2.590000 -0.188082 -0.188405 -0.122979 -0.091072 
2.595000 -0.187116 -0.190983 -0.126202 -0.083014 
2.600000 -0.190661 -0.190661 -0.125235 -0.070767 
2.605000 -0.191628 -0.192917 -0.128135 -0.083336 
2.610000 -0.189694 -0.190661 -0.125235 -0.093328 
2.615000 -0.189049 -0.192917 -0.125235 -0.064321 
2.620000 -0.190016 -0.192917 -0.127491 -0.089138 
2.625000 -0.193884 -0.194851 -0.126524 -0.085592 
2.630000 -0.190338 -0.190661 -0.124590 -0.071734 
2.635000 -0.187760 -0.192595 -0.123301 -0.098484 
2.640000 -0.188727 -0.194206 -0.125557 -0.086237 
2.645000 -0.191628 -0.195173 -0.125557 -0.099773 
2.650000 -0.188727 -0.193239 -0.124268 -0.101707 
2.655000 -0.187116 -0.191305 -0.123946 -0.065610 
2.660000 -0.187760 -0.193239 -0.126846 -0.089138 
2.665000 -0.188405 -0.193884 -0.125557 -0.101063 
2.670000 -0.186471 -0.195173 -0.126846 -0.100740 
2.675000 -0.188727 -0.191950 -0.124590 -0.077213 
2.680000 -0.190661 -0.196140 -0.126202 -0.082047 
2.685000 -0.189049 -0.194528 -0.126202 -0.089460 
2.690000 -0.190338 -0.196140 -0.125557 -0.081403 
2.695000 -0.188405 -0.193561 -0.125235 -0.092683 
2.700000 -0.191628 -0.197107 -0.128458 -0.092361 
2.705000 -0.189694 -0.195817 -0.127169 -0.077857 
2.710000 -0.189694 -0.196784 -0.126846 -0.081080 
2.715000 -0.188727 -0.195817 -0.124913 -0.089782 
2.720000 -0.194206 -0.198074 -0.129747 -0.087526 
2.725000 -0.190016 -0.196462 -0.125235 -0.085592 
2.730000 -0.189694 -0.197429 -0.125557 -0.093650 
2.735000 -0.189049 -0.194206 -0.125235 -0.077857 
2.740000 -0.191950 -0.198074 -0.127813 -0.089460 
2.745000 -0.190661 -0.195495 -0.126846 -0.087849 
2.750000 -0.190661 -0.197107 -0.125879 -0.092683 
2.755000 -0.187438 -0.192595 -0.124913 -0.079147 
2.760000 -0.190983 -0.197107 -0.128458 -0.080758 
2.765000 -0.189694 -0.195173 -0.126524 -0.083981 
2.770000 -0.189372 -0.194528 -0.126524 -0.080758 
2.775000 -0.186793 -0.193561 -0.125879 -0.080436 
2.780000 -0.190338 -0.198074 -0.128458 -0.087849 
2.785000 -0.190661 -0.195173 -0.127491 -0.091716 
2.790000 -0.189372 -0.194206 -0.127491 -0.081725 
2.795000 -0.188405 -0.195495 -0.125879 -0.101707 
2.800000 -0.194206 -0.196462 -0.130392 -0.085592 
2.805000 -0.189049 -0.195495 -0.128780 -0.088493 
2.810000 -0.191950 -0.195495 -0.129747 -0.082692 
2.815000 -0.190338 -0.194206 -0.127169 -0.073023 
2.820000 -0.193884 -0.200007 -0.130069 -0.089460 
2.825000 -0.191628 -0.195495 -0.127813 -0.076568 
2.830000 -0.195173 -0.193561 -0.127813 -0.093650 
2.835000 -0.189694 -0.192272 -0.127491 -0.089138 
2.840000 -0.196784 -0.194851 -0.131036 -0.079469 
2.845000 -0.191628 -0.195173 -0.127169 -0.088815 
2.850000 -0.192272 -0.190983 -0.127491 -0.092361 
2.855000 -0.191628 -0.190016 -0.128135 -0.085592 
2.860000 -0.192917 -0.192917 -0.128458 -0.088815 
2.865000 -0.192272 -0.192272 -0.129747 -0.106542 
2.870000 -0.188405 -0.190983 -0.127169 -0.087849 
2.875000 -0.192595 -0.189049 -0.127813 -0.085915 
2.880000 -0.191628 -0.191305 -0.129425 -0.096228 
2.885000 -0.193239 -0.190983 -0.131036 -0.106864 
2.890000 -0.192595 -0.191628 -0.129102 -0.077857 
2.895000 -0.191950 -0.189372 -0.130069 -0.076891 
2.900000 -0.194851 -0.190983 -0.131358 -0.094294 
2.905000 -0.194851 -0.191628 -0.133614 -0.082047 
2.910000 -0.195817 -0.187760 -0.130392 -0.093328 
2.915000 -0.195173 -0.188082 -0.130069 -0.082692 
2.920000 -0.195173 -0.187760 -0.129425 -0.095584 
2.925000 -0.195495 -0.189372 -0.131358 -0.091394 