#
# Run File created 13/08/2015 3:07:29 PM
#

#
# 
#

# Ch1_Incident WP                     Moving          14.299(x - zero)
# Ch2_Phase WP                        Moving          16.965(x - zero)
# Ch3_OWC WP                          Moving          21.847(x - zero)
# Ch4_OWC Pressure                    Moving          41.623(x - zero)

TITLE="Calibration"
VARIABLES="Time" "Ch1_Incident WP" "Ch2_Phase WP" "Ch3_OWC WP" "Ch4_OWC Pressure" 
ZONE T="Calibration" F=POINT 
0.000000 0.046681 0.107498 0.232217 0.027345 
1.000000 14.298819 16.964721 21.846986 41.623146 

TITLE="Data"
VARIABLES="Time" "Ch1_Incident WP" "Ch2_Phase WP" "Ch3_OWC WP" "Ch4_OWC Pressure" 
ZONE T="Data" F=POINT 
0.000000 0.037847 0.108429 0.228001 0.042359 
0.005000 0.033657 0.106818 0.227356 0.028822 
0.010000 0.035268 0.105851 0.229290 0.022699 
0.015000 0.042036 0.110363 0.228323 0.020120 
0.020000 0.036235 0.108429 0.228645 0.010774 
0.025000 0.035913 0.104884 0.225745 0.018509 
0.030000 0.034301 0.109396 0.227356 0.017864 
0.035000 0.034624 0.109074 0.231224 0.028822 
0.040000 0.034946 0.105851 0.227034 0.019153 
0.045000 0.030434 0.107140 0.228001 0.032368 
0.050000 0.031723 0.106173 0.228645 0.023343 
0.055000 0.035591 0.106173 0.229612 0.018831 
0.060000 0.032368 0.106495 0.226067 0.023988 
0.065000 0.030434 0.108107 0.227678 0.031723 
0.070000 0.034301 0.104562 0.227678 0.035268 
0.075000 0.036235 0.111008 0.229934 0.029145 
0.080000 0.036557 0.108752 0.228968 0.013352 
0.085000 0.033334 0.107785 0.227034 0.024310 
0.090000 0.035268 0.108752 0.230579 0.020120 
0.095000 0.042036 0.112297 0.229612 0.022699 
0.100000 0.033334 0.108752 0.229934 0.021732 
0.105000 0.030111 0.107785 0.229290 0.037202 
0.110000 0.035268 0.111652 0.228968 0.034624 
0.115000 0.038813 0.108752 0.228645 0.023666 
0.120000 0.034624 0.110041 0.230579 0.028500 
0.125000 0.032690 0.108752 0.226389 0.028822 
0.130000 0.033334 0.105851 0.227356 0.023666 
0.135000 0.036235 0.109396 0.231546 0.024632 
0.140000 0.035591 0.109074 0.225745 0.024955 
0.145000 0.031401 0.104884 0.227678 0.027855 
0.150000 0.031078 0.107785 0.229290 0.024955 
0.155000 0.035913 0.110363 0.228968 0.021732 
0.160000 0.033334 0.108107 0.228001 0.034301 
0.165000 0.029467 0.107140 0.228323 0.024955 
0.170000 0.032690 0.107785 0.228968 0.033979 
0.175000 0.035913 0.109396 0.230901 0.034301 
0.180000 0.033334 0.106495 0.228968 0.032045 
0.185000 0.031401 0.107140 0.229934 0.023343 
0.190000 0.032368 0.106173 0.229612 0.033334 
0.195000 0.033657 0.107462 0.233157 0.032368 
0.200000 0.034946 0.112297 0.229612 0.042359 
0.205000 0.034301 0.109074 0.228323 0.037202 
0.210000 0.034624 0.110363 0.228323 0.027533 
0.215000 0.037847 0.111330 0.229290 0.026889 
0.220000 0.037524 0.107785 0.228968 0.034301 
0.225000 0.031401 0.099727 0.227678 0.033979 
0.230000 0.033979 0.107785 0.228645 0.028822 
0.235000 0.037202 0.107140 0.228323 0.026566 
0.240000 0.034301 0.105529 0.229612 0.028822 
0.245000 0.031723 0.103272 0.227034 0.033012 
0.250000 0.033979 0.105851 0.228323 0.020443 
0.255000 0.034624 0.104239 0.231546 0.032368 
0.260000 0.033012 0.107462 0.231224 0.034946 
0.265000 0.035268 0.103595 0.227678 0.023343 
0.270000 0.030756 0.103595 0.229290 0.029145 
0.275000 0.035268 0.105851 0.229934 0.019476 
0.280000 0.039458 0.105206 0.229934 0.018831 
0.285000 0.034301 0.102950 0.230257 0.035591 
0.290000 0.036557 0.103917 0.228323 0.029789 
0.295000 0.038491 0.107140 0.230901 0.019476 
0.300000 0.038169 0.106173 0.229612 0.039136 
0.305000 0.034301 0.102306 0.229934 0.036880 
0.310000 0.039780 0.105851 0.228323 0.032368 
0.315000 0.036235 0.102628 0.232835 0.024310 
0.320000 0.040425 0.105851 0.229612 0.033012 
0.325000 0.035268 0.101661 0.228001 0.039458 
0.330000 0.038813 0.101983 0.228645 0.021410 
0.335000 0.037202 0.105851 0.231546 0.039136 
0.340000 0.038491 0.102306 0.230257 0.031078 
0.345000 0.036880 0.097793 0.225745 0.030434 
0.350000 0.033979 0.103272 0.227034 0.026889 
0.355000 0.037524 0.099727 0.223489 0.020120 
0.360000 0.036235 0.100694 0.229612 0.022376 
0.365000 0.036557 0.100694 0.226712 0.035591 
0.370000 0.035268 0.098116 0.228968 0.036235 
0.375000 0.037847 0.103272 0.230257 0.032690 
0.380000 0.048805 0.105529 0.232835 0.030111 
0.385000 0.038813 0.099727 0.228645 0.036557 
0.390000 0.036235 0.101661 0.230579 0.036880 
0.395000 0.042681 0.103595 0.231546 0.024955 
0.400000 0.041392 0.103272 0.230901 0.035913 
0.405000 0.038169 0.100050 0.229612 0.027533 
0.410000 0.040747 0.103917 0.227356 0.027855 
0.415000 0.041070 0.101661 0.228645 0.034624 
0.420000 0.042036 0.103272 0.231224 0.034946 
0.425000 0.035591 0.100050 0.228968 0.027533 
0.430000 0.039136 0.099727 0.228645 0.010129 
0.435000 0.040425 0.097149 0.229290 0.038813 
0.440000 0.040747 0.103272 0.229934 0.031078 
0.445000 0.036557 0.098760 0.228645 0.033012 
0.450000 0.038491 0.095215 0.228001 0.039136 
0.455000 0.040103 0.102950 0.227678 0.028500 
0.460000 0.040425 0.102950 0.232835 0.028178 
0.465000 0.032690 0.099405 0.228645 0.015608 
0.470000 0.038491 0.100050 0.228001 0.036557 
0.475000 0.039458 0.100050 0.232191 0.041714 
0.480000 0.041070 0.103595 0.229612 0.021087 
0.485000 0.036880 0.100694 0.229934 0.028500 
0.490000 0.032368 0.104562 0.229934 0.026566 
0.495000 0.045582 0.101661 0.230257 0.029467 
0.500000 0.042036 0.104884 0.234769 0.030756 
0.505000 0.039458 0.100372 0.228323 0.022054 
0.510000 0.037202 0.085869 0.230257 0.043970 
0.515000 0.039780 0.103272 0.230257 0.031401 
0.520000 0.039780 0.102306 0.230257 0.025277 
0.525000 0.035268 0.100372 0.229934 0.041714 
0.530000 0.038813 0.101339 0.225422 0.012063 
0.535000 0.037202 0.103595 0.230579 0.018187 
0.540000 0.036880 0.104884 0.228968 0.025599 
0.545000 0.035913 0.099727 0.228968 0.026566 
0.550000 0.031723 0.102628 0.226712 0.014641 
0.555000 0.037524 0.105851 0.229290 0.019476 
0.560000 0.038169 0.102628 0.228645 0.030434 
0.565000 0.033334 0.103917 0.228323 0.020443 
0.570000 0.039458 0.101983 0.227034 0.033334 
0.575000 0.037847 0.103917 0.232513 0.021410 
0.580000 0.033979 0.109718 0.232191 0.019798 
0.585000 0.037847 0.103595 0.230257 0.028822 
0.590000 0.036235 0.103595 0.233157 0.028500 
0.595000 0.039780 0.107140 0.232191 0.016575 
0.600000 0.036557 0.108107 0.233480 0.036557 
0.605000 0.035268 0.107785 0.230579 0.024632 
0.610000 0.034624 0.103917 0.227356 0.017220 
0.615000 0.035591 0.107785 0.231546 0.029789 
0.620000 0.040425 0.109396 0.229290 0.027855 
0.625000 0.033012 0.102306 0.228001 0.012708 
0.630000 0.033657 0.104884 0.228968 0.013352 
0.635000 0.037524 0.105206 0.227678 0.019153 
0.640000 0.034301 0.107785 0.230579 0.025277 
0.645000 0.032045 0.104562 0.227034 0.018831 
0.650000 0.030756 0.101339 0.229612 0.028178 
0.655000 0.031078 0.109396 0.231546 0.030111 
0.660000 0.033657 0.108107 0.229934 0.021087 
0.665000 0.032690 0.108752 0.227356 0.037202 
0.670000 0.027855 0.104884 0.229612 0.020765 
0.675000 0.033334 0.109396 0.230901 0.032045 
0.680000 0.033657 0.110041 0.230257 0.033334 
0.685000 0.031401 0.108429 0.229290 0.019476 
0.690000 0.032368 0.111652 0.228968 0.023666 
0.695000 0.036880 0.110363 0.231224 0.013030 
0.700000 0.033012 0.110363 0.231868 0.025277 
0.705000 0.030756 0.112619 0.228001 0.018509 
0.710000 0.033334 0.105851 0.225745 0.025922 
0.715000 0.034624 0.110041 0.231546 0.030111 
0.720000 0.037202 0.112297 0.228323 0.035268 
0.725000 0.030756 0.105206 0.227678 0.005939 
0.730000 0.033012 0.111008 0.227356 0.026566 
0.735000 0.035591 0.109718 0.226389 0.020765 
0.740000 0.030434 0.111330 0.229290 0.025277 
0.745000 0.030434 0.108752 0.227034 0.025277 
0.750000 0.033334 0.107785 0.227678 0.016575 
0.755000 0.032690 0.110685 0.228323 0.027211 
0.760000 0.033012 0.113264 0.229290 0.028822 
0.765000 0.030434 0.110041 0.226389 0.016253 
0.770000 0.030756 0.108752 0.227678 0.015931 
0.775000 0.031723 0.110041 0.230257 0.022376 
0.780000 0.033334 0.111974 0.228968 0.019798 
0.785000 0.031401 0.112619 0.227678 0.015286 
0.790000 0.032045 0.109718 0.228001 0.034301 
0.795000 0.033979 0.114875 0.228323 0.030111 
0.800000 0.036880 0.111652 0.229612 0.030111 
0.805000 0.030756 0.109396 0.229290 0.020765 
0.810000 0.035591 0.109074 0.225422 0.024632 
0.815000 0.033979 0.108752 0.228968 0.023666 
0.820000 0.031401 0.111974 0.231224 0.028178 
0.825000 0.034301 0.107462 0.228001 0.025599 
0.830000 0.031401 0.107785 0.223811 0.036880 
0.835000 0.033012 0.108429 0.226712 0.026566 
0.840000 0.033979 0.108752 0.227356 0.017542 
0.845000 0.031723 0.108752 0.225745 0.032045 
0.850000 0.033979 0.102950 0.222844 0.030756 
0.855000 0.032045 0.109074 0.227034 0.034301 
0.860000 0.033334 0.109074 0.227678 0.043970 
0.865000 0.032690 0.105851 0.228645 0.008195 
0.870000 0.033657 0.105206 0.225422 0.016575 
0.875000 0.034301 0.105851 0.228323 0.033334 
0.880000 0.035913 0.112941 0.228001 0.032368 
0.885000 0.035268 0.107785 0.226712 0.010129 
0.890000 0.033979 0.105529 0.230579 0.015608 
0.895000 0.039136 0.109718 0.226067 0.031078 
0.900000 0.035268 0.108429 0.229290 0.024632 
0.905000 0.035591 0.107462 0.228001 0.018831 
0.910000 0.037524 0.101983 0.225745 0.023021 
0.915000 0.035913 0.105206 0.228645 0.023343 
0.920000 0.035268 0.110685 0.227678 0.026566 
0.925000 0.035913 0.104562 0.223489 0.035913 
0.930000 0.031401 0.100372 0.228001 0.021087 
0.935000 0.033657 0.106173 0.228001 0.024632 
0.940000 0.038169 0.105529 0.227034 0.023343 
0.945000 0.033979 0.102950 0.229612 0.017542 
0.950000 0.032368 0.104562 0.223489 0.015286 
0.955000 0.032368 0.102950 0.227034 0.032045 
0.960000 0.034301 0.104884 0.227678 0.018831 
0.965000 0.032368 0.102628 0.225745 0.025599 
0.970000 0.032690 0.101983 0.226712 0.036235 
0.975000 0.037524 0.108107 0.228645 0.020765 
0.980000 0.037847 0.105206 0.228001 0.043003 
0.985000 0.037847 0.104562 0.226712 0.030111 
0.990000 0.036235 0.100050 0.226067 0.025922 
0.995000 0.035591 0.103917 0.229934 0.027533 
1.000000 0.037524 0.105851 0.230257 0.030756 
1.005000 0.035913 0.103917 0.228001 0.023666 
1.010000 0.036235 0.102628 0.225745 0.012385 
1.015000 0.039136 0.101661 0.226389 0.025599 
1.020000 0.037202 0.102306 0.227034 0.035268 
1.025000 0.032368 0.101983 0.225422 0.025599 
1.030000 0.033012 0.098116 0.225422 0.022699 
1.035000 0.036557 0.102950 0.228645 0.011418 
1.040000 0.034946 0.104562 0.229934 0.030756 
1.045000 0.033657 0.101661 0.227678 0.020443 
1.050000 0.033657 0.099405 0.225100 0.024955 
1.055000 0.034624 0.103595 0.227678 0.017220 
1.060000 0.037524 0.101661 0.228001 0.018509 
1.065000 0.033012 0.096827 0.228645 0.027855 
1.070000 0.032690 0.099727 0.226389 0.017864 
1.075000 0.037202 0.101016 0.227356 0.043970 
1.080000 0.034301 0.103272 0.230257 0.025599 
1.085000 0.034946 0.102628 0.228323 0.033979 
1.090000 0.033657 0.099405 0.225745 0.036557 
1.095000 0.035591 0.103272 0.229934 0.038169 
1.100000 0.039458 0.104884 0.227034 0.029789 
1.105000 0.030111 0.100372 0.227034 0.031723 
1.110000 0.032690 0.100372 0.228645 0.019153 
1.115000 0.039136 0.103272 0.227356 0.022376 
1.120000 0.037524 0.102950 0.228001 0.023666 
1.125000 0.032368 0.098760 0.225422 0.038169 
1.130000 0.031723 0.097793 0.225745 0.022376 
1.135000 0.034301 0.099727 0.228001 0.026889 
1.140000 0.031723 0.102628 0.228968 0.038813 
1.145000 0.030756 0.102306 0.228645 0.026889 
1.150000 0.033012 0.099083 0.226067 0.034301 
1.155000 0.033012 0.100694 0.226712 0.022376 
1.160000 0.032690 0.101339 0.229934 0.020765 
1.165000 0.031078 0.101339 0.227034 0.029145 
1.170000 0.030756 0.102628 0.225745 0.022699 
1.175000 0.035268 0.104884 0.228323 0.033657 
1.180000 0.033979 0.100694 0.229934 0.012708 
1.185000 0.029467 0.102628 0.229934 0.028822 
1.190000 0.034946 0.102628 0.227678 0.016575 
1.195000 0.034624 0.103917 0.228968 0.032690 
1.200000 0.033657 0.104562 0.229290 0.028178 
1.205000 0.031401 0.102950 0.228001 0.023988 
1.210000 0.032368 0.104239 0.225100 0.024632 
1.215000 0.032045 0.106173 0.226389 0.027533 
1.220000 0.033657 0.105206 0.230901 0.028178 
1.225000 0.032045 0.102306 0.224778 0.025599 
1.230000 0.029145 0.101983 0.226067 0.029145 
1.235000 0.034301 0.101339 0.227678 0.033979 
1.240000 0.032045 0.106495 0.230257 0.023988 
1.245000 0.028822 0.101983 0.226067 0.026566 
1.250000 0.033657 0.100372 0.226712 0.032368 
1.255000 0.032368 0.103917 0.228968 0.034301 
1.260000 0.032045 0.103272 0.229290 0.030756 
1.265000 0.030434 0.106173 0.228645 0.018831 
1.270000 0.032368 0.102306 0.226067 0.044615 
1.275000 0.029789 0.109718 0.232191 0.038169 
1.280000 0.034624 0.104562 0.229612 0.038491 
1.285000 0.033979 0.107785 0.228323 0.026244 
1.290000 0.031401 0.106818 0.226389 0.027533 
1.295000 0.036557 0.107785 0.231546 0.026244 
1.300000 0.033334 0.108752 0.231224 0.040425 
1.305000 0.035268 0.108429 0.226067 0.035268 
1.310000 0.032368 0.104562 0.228001 0.038491 
1.315000 0.036880 0.109074 0.227356 0.032368 
1.320000 0.037202 0.107785 0.230579 0.036235 
1.325000 0.034624 0.103272 0.225422 0.032690 
1.330000 0.033979 0.105851 0.226712 0.034946 
1.335000 0.031401 0.103595 0.229612 0.034301 
1.340000 0.034946 0.107785 0.228323 0.024310 
1.345000 0.031723 0.102950 0.225100 0.028822 
1.350000 0.030111 0.104562 0.228323 0.029145 
1.355000 0.033334 0.109718 0.228968 0.030111 
1.360000 0.036557 0.109718 0.229290 0.031401 
1.365000 0.033979 0.106495 0.228968 0.025922 
1.370000 0.035268 0.105206 0.226389 0.034301 
1.375000 0.036557 0.107785 0.230901 0.025922 
1.380000 0.037524 0.110363 0.233802 0.026566 
1.385000 0.038169 0.109718 0.228323 0.027533 
1.390000 0.035591 0.104239 0.228968 0.028822 
1.395000 0.038169 0.112297 0.230579 0.023988 
1.400000 0.037847 0.108752 0.231868 0.028178 
1.405000 0.037202 0.106173 0.228968 0.026889 
1.410000 0.037847 0.107785 0.226067 0.027855 
1.415000 0.037524 0.109074 0.228323 0.040747 
1.420000 0.040747 0.110041 0.228968 0.025277 
1.425000 0.036880 0.109074 0.228323 0.039136 
1.430000 0.037202 0.107462 0.226712 0.033657 
1.435000 0.037202 0.104884 0.229290 0.024632 
1.440000 0.039458 0.110041 0.230579 0.028822 
1.445000 0.035913 0.103272 0.226067 0.024632 
1.450000 0.034946 0.103272 0.228001 0.038491 
1.455000 0.040103 0.108107 0.228001 0.023021 
1.460000 0.041714 0.105206 0.230257 0.031078 
1.465000 0.039136 0.105206 0.228968 0.015931 
1.470000 0.036235 0.105206 0.228645 0.030756 
1.475000 0.041392 0.109718 0.230257 0.011096 
1.480000 0.041070 0.107785 0.228645 0.025277 
1.485000 0.039136 0.108107 0.227034 0.033334 
1.490000 0.038813 0.107140 0.229934 0.016897 
1.495000 0.043970 0.110041 0.231546 0.011741 
1.500000 0.042036 0.108107 0.230579 0.028822 
1.505000 0.037847 0.106495 0.227678 0.025922 
1.510000 0.039780 0.105206 0.225745 0.031078 
1.515000 0.043003 0.106818 0.229934 0.033012 
1.520000 0.042359 0.124222 0.226389 0.020765 
1.525000 0.039458 0.102628 0.227678 0.033334 
1.530000 0.037202 0.103272 0.228645 0.027211 
1.535000 0.040103 0.105206 0.229934 0.022054 
1.540000 0.039780 0.107140 0.230901 0.035913 
1.545000 0.040103 0.102950 0.226389 0.025599 
1.550000 0.039458 0.103272 0.224778 0.036557 
1.555000 0.042036 0.104884 0.229612 0.022699 
1.560000 0.042359 0.105529 0.229934 0.029467 
1.565000 0.041070 0.102628 0.227034 0.025277 
1.570000 0.038813 0.101016 0.228323 0.030111 
1.575000 0.042036 0.104884 0.231546 0.021087 
1.580000 0.043970 0.107140 0.232835 0.037202 
1.585000 0.041070 0.104239 0.226712 0.031078 
1.590000 0.040103 0.102306 0.226389 0.028178 
1.595000 0.043003 0.105206 0.230901 0.025599 
1.600000 0.041392 0.102628 0.232835 0.004972 
1.605000 0.042036 0.102950 0.227678 0.013674 
1.610000 0.039458 0.101983 0.227356 0.010129 
1.615000 0.038813 0.104562 0.229290 0.020765 
1.620000 0.043648 0.101661 0.229612 0.024310 
1.625000 0.037847 0.099727 0.225422 0.031078 
1.630000 0.034624 0.099727 0.227356 0.020443 
1.635000 0.039458 0.104239 0.227034 0.032045 
1.640000 0.041714 0.106495 0.228323 0.023343 
1.645000 0.038813 0.099405 0.224778 0.028178 
1.650000 0.036880 0.096182 0.235413 0.032045 
1.655000 0.037524 0.102306 0.232191 0.024310 
1.660000 0.040425 0.105206 0.228323 0.029789 
1.665000 0.036880 0.100372 0.227034 0.029467 
1.670000 0.037202 0.101339 0.228968 0.034301 
1.675000 0.004972 0.103595 0.228323 0.033012 
1.680000 0.039780 0.105206 0.227356 0.023343 
1.685000 0.039136 0.100050 0.229290 0.029145 
1.690000 0.038169 0.100694 0.229612 0.028500 
1.695000 0.041392 0.105851 0.229290 0.025277 
1.700000 0.039780 0.103917 0.228968 0.014964 
1.705000 0.036557 0.101661 0.227678 0.014641 
1.710000 0.033979 0.101339 0.227678 0.026566 
1.715000 0.039136 0.104562 0.231546 0.018831 
1.720000 0.038491 0.107140 0.228001 0.020765 
1.725000 0.036557 0.101661 0.225422 0.017220 
1.730000 0.033979 0.100694 0.225745 0.028178 
1.735000 0.038813 0.105206 0.229612 0.013352 
1.740000 0.039780 0.103272 0.228968 0.027211 
1.745000 0.034624 0.101983 0.226712 0.029467 
1.750000 0.031078 0.100372 0.227356 0.020765 
1.755000 0.035268 0.104562 0.231546 0.020120 
1.760000 0.037847 0.107462 0.228968 0.024955 
1.765000 0.034301 0.099405 0.226712 0.023988 
1.770000 0.032045 0.103917 0.231224 0.031401 
1.775000 0.036235 0.107462 0.228645 0.034624 
1.780000 0.036557 0.108429 0.229934 0.012385 
1.785000 0.036880 0.101016 0.227678 0.018509 
1.790000 0.033334 0.100694 0.228645 0.043970 
1.795000 0.034624 0.107462 0.230901 0.023343 
1.800000 0.033979 0.109074 0.231224 0.030111 
1.805000 0.033012 0.101661 0.226067 0.020765 
1.810000 0.029467 0.102950 0.228001 0.023988 
1.815000 0.034624 0.106495 0.229934 0.023021 
1.820000 0.031401 0.106495 0.229612 0.007551 
1.825000 0.029789 0.103595 0.226389 0.038491 
1.830000 0.033012 0.107785 0.224778 0.031078 
1.835000 0.032690 0.108107 0.229934 0.019153 
1.840000 0.033012 0.109718 0.228968 0.031401 
1.845000 0.028822 0.105206 0.225745 0.028500 
1.850000 0.028822 0.104884 0.228645 0.037847 
1.855000 0.035591 0.107462 0.228968 0.035913 
1.860000 0.033334 0.108107 0.232191 0.015931 
1.865000 0.030756 0.108107 0.227678 0.024632 
1.870000 0.032368 0.109074 0.229290 0.031723 
1.875000 0.032690 0.114875 0.231546 0.031723 
1.880000 0.032368 0.109396 0.231224 0.036235 
1.885000 0.033657 0.108107 0.226712 0.018831 
1.890000 0.031401 0.111008 0.227034 0.039136 
1.895000 0.032690 0.109074 0.232835 0.024955 
1.900000 0.037524 0.111008 0.228968 0.022054 
1.905000 0.032690 0.108107 0.227678 0.030434 
1.910000 0.029467 0.107785 0.228323 0.026889 
1.915000 0.036235 0.108429 0.229612 0.023988 
1.920000 0.033012 0.111008 0.227034 0.019798 
1.925000 0.028822 0.109074 0.226067 0.022376 
1.930000 0.028822 0.107785 0.228001 0.043003 
1.935000 0.030111 0.108107 0.229934 0.022699 
1.940000 0.032045 0.110041 0.227034 0.023666 
1.945000 0.028500 0.108429 0.226389 0.022054 
1.950000 0.028822 0.107462 0.228001 0.023343 
1.955000 0.034301 0.107140 0.230257 0.028822 
1.960000 0.033334 0.112297 0.230257 0.026244 
1.965000 0.029145 0.107140 0.228645 0.016897 
1.970000 0.031078 0.108107 0.228323 0.027533 
1.975000 0.034946 0.113264 0.231224 0.030756 
1.980000 0.033012 0.112619 0.229612 0.026244 
1.985000 0.032045 0.109396 0.229290 0.035591 
1.990000 0.033979 0.108752 0.228001 0.031078 
1.995000 0.033012 0.112297 0.229934 0.028178 
2.000000 0.033012 0.111652 0.228645 0.009807 
2.005000 0.033657 0.104562 0.228001 0.023343 
2.010000 0.031401 0.105851 0.228001 0.024310 
2.015000 0.037847 0.109396 0.231224 0.024310 
2.020000 0.032690 0.109074 0.230257 0.015286 
2.025000 0.031401 0.102306 0.226712 0.031401 
2.030000 0.031401 0.105529 0.227356 0.036557 
2.035000 0.030434 0.111652 0.229612 0.023343 
2.040000 0.030111 0.109718 0.227678 0.029789 
2.045000 0.029789 0.104884 0.226389 0.025599 
2.050000 0.034301 0.105206 0.228001 0.008518 
2.055000 0.036880 0.112619 0.229612 0.020765 
2.060000 0.033012 0.106818 0.230257 0.026244 
2.065000 0.032690 0.104239 0.226712 0.017542 
2.070000 0.035591 0.109074 0.226389 0.030756 
2.075000 0.035913 0.109718 0.232191 0.029789 
2.080000 0.034301 0.106173 0.229290 0.032690 
2.085000 0.033012 0.103595 0.227678 0.019153 
2.090000 0.033979 0.106173 0.231224 0.027855 
2.095000 0.034301 0.107785 0.230257 0.032045 
2.100000 0.036557 0.106818 0.227678 0.023343 
2.105000 0.034301 0.104562 0.226712 0.031401 
2.110000 0.033657 0.106495 0.228323 0.026889 
2.115000 0.036880 0.106818 0.231546 0.024310 
2.120000 0.033657 0.104239 0.228323 0.017542 
2.125000 0.034301 0.099405 0.226067 0.020443 
2.130000 0.036557 0.101661 0.226712 0.017542 
2.135000 0.037847 0.103595 0.230257 0.023666 
2.140000 0.035913 0.102950 0.229612 0.021410 
2.145000 0.035268 0.100372 0.224778 0.026566 
2.150000 0.032690 0.102306 0.229290 0.037202 
2.155000 0.036235 0.103917 0.229934 0.018509 
2.160000 0.036235 0.101661 0.228001 0.037847 
2.165000 0.033334 0.103595 0.227034 0.022699 
2.170000 0.035268 0.102950 0.229290 0.020443 
2.175000 0.036880 0.107140 0.229934 0.034946 
2.180000 0.039458 0.103917 0.229934 0.030111 
2.185000 0.036880 0.102306 0.226389 0.014964 
2.190000 0.036880 0.102628 0.228323 0.025599 
2.195000 0.040425 0.105206 0.232513 0.011741 
2.200000 0.037847 0.100372 0.226712 0.040103 
2.205000 0.038169 0.101016 0.226389 0.018509 
2.210000 0.037202 0.100372 0.228001 0.025277 
2.215000 0.040425 0.106495 0.228645 0.032368 
2.220000 0.038813 0.099727 0.226712 0.030756 
2.225000 0.035268 0.099405 0.226389 0.022376 
2.230000 0.036880 0.095537 0.228968 0.020443 
2.235000 0.039458 0.102628 0.228645 0.027533 
2.240000 0.037524 0.100372 0.229290 0.027533 
2.245000 0.034301 0.098760 0.225422 0.022376 
2.250000 0.036235 0.102628 0.226067 0.035268 
2.255000 0.040103 0.102950 0.229290 0.024310 
2.260000 0.040747 0.100694 0.229290 0.025922 
2.265000 0.036880 0.100050 0.226389 0.019476 
2.270000 0.040103 0.101339 0.228323 0.018509 
2.275000 0.039780 0.100050 0.231224 0.029467 
2.280000 0.039458 0.099405 0.228645 0.023666 
2.285000 0.039780 0.097471 0.228323 0.025277 
2.290000 0.039458 0.101983 0.229934 0.022376 
2.295000 0.040425 0.101983 0.228323 0.027211 
2.300000 0.041714 0.105206 0.227356 0.027533 
2.305000 0.037524 0.099405 0.226712 0.030111 
2.310000 0.040747 0.099083 0.225100 0.036557 
2.315000 0.039458 0.104562 0.229612 0.016253 
2.320000 0.042359 0.100372 0.225422 0.027855 
2.325000 0.035591 0.096182 0.226712 0.021410 
2.330000 0.040747 0.100050 0.224455 0.032690 
2.335000 0.038813 0.101016 0.228323 0.023021 
2.340000 0.041714 0.103272 0.226712 0.022699 
2.345000 0.040747 0.096504 0.228645 0.025277 
2.350000 0.039780 0.098760 0.227034 0.033012 
2.355000 0.040103 0.104884 0.230901 0.049449 
2.360000 0.040425 0.101016 0.228645 0.020120 
2.365000 0.035913 0.101016 0.228645 0.027855 
2.370000 0.040425 0.100372 0.229290 0.024310 
2.375000 0.044615 0.103595 0.229290 0.019798 
2.380000 0.039136 0.107140 0.228645 0.023021 
2.385000 0.041392 0.101661 0.227034 0.017542 
2.390000 0.038169 0.103595 0.229612 0.036235 
2.395000 0.043326 0.103917 0.228001 0.027855 
2.400000 0.040425 0.104884 0.228645 0.027211 
2.405000 0.039136 0.101339 0.225100 0.027211 
2.410000 0.039780 0.106173 0.226389 0.024955 
2.415000 0.040747 0.103272 0.228968 0.023021 
2.420000 0.038491 0.106495 0.225100 0.031078 
2.425000 0.036557 0.098760 0.228323 0.045904 
2.430000 0.038169 0.101016 0.226389 0.024955 
2.435000 0.041392 0.104239 0.228001 0.026889 
2.440000 0.034624 0.105206 0.228645 0.036557 
2.445000 0.035268 0.101983 0.226067 0.040747 
2.450000 0.036880 0.105529 0.228645 0.022054 
2.455000 0.037524 0.105206 0.230257 0.042359 
2.460000 0.038813 0.107785 0.226389 0.014641 
2.465000 0.034946 0.107140 0.228645 0.032045 
2.470000 0.035913 0.103595 0.228968 0.023666 
2.475000 0.041070 0.109396 0.227034 0.019798 
2.480000 0.036557 0.106173 0.230579 0.034301 
2.485000 0.036235 0.107140 0.225422 0.032368 
2.490000 0.038491 0.108752 0.225745 0.013674 
2.495000 0.035913 0.109074 0.229290 0.027855 
2.500000 0.037847 0.107140 0.229290 0.037202 
2.505000 0.037524 0.109396 0.227356 0.021410 
2.510000 0.034301 0.106173 0.225422 0.031078 
2.515000 0.036880 0.109074 0.230257 0.020120 
2.520000 0.035913 0.108429 0.225100 0.037202 
2.525000 0.031078 0.104884 0.227356 0.019798 
2.530000 0.032690 0.111008 0.228001 0.033012 
2.535000 0.039136 0.110041 0.227034 0.017220 
2.540000 0.032045 0.106495 0.227356 0.023343 
2.545000 0.033334 0.106495 0.228645 0.018509 
2.550000 0.034624 0.107785 0.229290 0.024955 
2.555000 0.033657 0.108429 0.229934 0.028178 
2.560000 0.036557 0.112297 0.229290 0.034624 
2.565000 0.034624 0.110685 0.227034 0.033979 
2.570000 0.036557 0.110041 0.231546 0.038813 
2.575000 0.037524 0.113264 0.228968 0.025599 
2.580000 0.035591 0.111008 0.231546 0.022376 
2.585000 0.033012 0.110041 0.229290 0.030756 
2.590000 0.039136 0.111008 0.227678 0.035591 
2.595000 0.035591 0.112619 0.229612 0.027211 
2.600000 0.035268 0.112619 0.226712 0.026889 
2.605000 0.031401 0.111330 0.226712 0.028500 
2.610000 0.036235 0.108429 0.226067 0.032690 
2.615000 0.033979 0.111652 0.229290 0.038169 
2.620000 0.033657 0.111974 0.228323 0.031401 
2.625000 0.030111 0.106495 0.228968 0.026244 
2.630000 0.032690 0.109718 0.225745 0.036557 
2.635000 0.032045 0.111652 0.229612 0.033657 
2.640000 0.032045 0.106818 0.227678 0.021732 
2.645000 0.032045 0.108107 0.229934 0.031401 
2.650000 0.030756 0.109718 0.230901 0.031723 
2.655000 0.033012 0.114875 0.229290 0.018187 
2.660000 0.033979 0.111974 0.231224 0.029145 
2.665000 0.031078 0.109074 0.228968 0.040425 
2.670000 0.036557 0.109396 0.228001 0.046871 
2.675000 0.034301 0.112941 0.230901 0.040103 
2.680000 0.033657 0.111330 0.231224 0.029789 
2.685000 0.036557 0.110041 0.227356 0.021732 
2.690000 0.035591 0.112297 0.229934 0.029145 
2.695000 0.035591 0.113264 0.232513 0.034624 
2.700000 0.034624 0.109396 0.227678 0.033657 
2.705000 0.032045 0.110363 0.228323 0.026244 
2.710000 0.029789 0.107462 0.229290 0.033012 
2.715000 0.034624 0.113586 0.228001 0.025277 
2.720000 0.031401 0.109074 0.231224 0.031723 
2.725000 0.034301 0.107462 0.227678 0.029789 
2.730000 0.030434 0.105529 0.229934 0.033012 
2.735000 0.034624 0.110685 0.229612 0.035268 
2.740000 0.031723 0.107785 0.229934 0.027855 
2.745000 0.029789 0.110041 0.228968 0.032045 
2.750000 0.033334 0.107140 0.228968 0.028500 
2.755000 0.034946 0.109074 0.233802 0.030434 
2.760000 0.033979 0.106818 0.229290 0.025277 
2.765000 0.033979 0.109396 0.230257 0.043970 
2.770000 0.035591 0.106173 0.231546 0.021087 
2.775000 0.040747 0.111974 0.228323 0.036235 
2.780000 0.034624 0.108429 0.229612 0.017220 
2.785000 0.034946 0.108429 0.229290 0.033979 
2.790000 0.037524 0.103917 0.229290 0.024955 
2.795000 0.036235 0.107785 0.229934 0.034624 
2.800000 0.038813 0.108107 0.228968 0.037202 
2.805000 0.033012 0.105529 0.229612 0.023021 
2.810000 0.036880 0.104884 0.228645 0.017220 
2.815000 0.035913 0.092637 0.228001 0.022054 
2.820000 0.033979 0.106818 0.230257 0.043326 
2.825000 0.034301 0.101983 0.228645 0.035591 
2.830000 0.034624 0.102628 0.229934 0.049127 
2.835000 0.038813 0.102306 0.231546 0.021732 
2.840000 0.037524 0.104239 0.231868 0.025599 
2.845000 0.033979 0.101016 0.229612 0.030756 
2.850000 0.035591 0.101339 0.229934 0.037202 
2.855000 0.037524 0.103595 0.231546 0.036880 
2.860000 0.034624 0.104884 0.233480 0.028500 
2.865000 0.037847 0.101661 0.230901 0.036557 
2.870000 0.037524 0.101661 0.227356 0.026889 
2.875000 0.041070 0.104239 0.232191 0.036235 
2.880000 0.039136 0.105206 0.231224 0.022699 
2.885000 0.039780 0.104562 0.230901 0.024632 
2.890000 0.037847 0.098438 0.230901 0.045259 
2.895000 0.038491 0.103595 0.232191 0.038813 
2.900000 0.040103 0.104562 0.228968 0.025277 
2.905000 0.038491 0.098438 0.228968 0.033334 
2.910000 0.037524 0.100372 0.228968 0.034624 
2.915000 0.041070 0.098116 0.229612 0.035591 
2.920000 0.039136 0.100372 0.232191 0.029789 
2.925000 0.034946 0.098760 0.228323 0.023021 
2.930000 0.036880 0.097793 0.227678 0.039458 
2.935000 0.036557 0.098760 0.230901 0.034301 
2.940000 0.035268 0.101339 0.231868 0.033657 
2.945000 0.038813 0.102306 0.218010 0.026244 
2.950000 0.034946 0.098116 0.229290 0.035591 
2.955000 0.037202 0.101661 0.231224 0.026244 
2.960000 0.038491 0.101016 0.230579 0.023343 
2.965000 0.035913 0.098438 0.231546 0.024632 
2.970000 0.071043 0.101016 0.230257 0.023021 
2.975000 0.034946 0.103917 0.232191 0.025277 
2.980000 0.039136 0.105529 0.231868 0.030756 
2.985000 0.038491 0.101983 0.231546 0.022054 
2.990000 0.038169 0.100694 0.229934 0.020120 
2.995000 0.045259 0.100694 0.231546 0.023021 
3.000000 0.037847 0.103272 0.233802 0.026244 
3.005000 0.040103 0.102306 0.228645 0.032045 
3.010000 0.035591 0.100694 0.230901 0.016575 
3.015000 0.036880 0.101983 0.229612 0.025277 
3.020000 0.041070 0.100694 0.231546 0.019153 
3.025000 0.035591 0.101339 0.229612 0.023666 
3.030000 0.037847 0.096182 0.227356 0.029789 
3.035000 0.037847 0.103272 0.230579 0.026566 
3.040000 0.040103 0.101983 0.229290 0.024955 
3.045000 0.034301 0.101661 0.233480 0.031401 
3.050000 0.036235 0.100372 0.229934 0.028178 
3.055000 0.036235 0.102628 0.233157 0.026244 
3.060000 0.040425 0.105851 0.232513 0.033012 
3.065000 0.037524 0.102306 0.230579 0.023988 
3.070000 0.037847 0.103595 0.229612 0.018187 
3.075000 0.035591 0.104239 0.231868 0.028822 
3.080000 0.039136 0.108429 0.230579 0.025599 
3.085000 0.037524 0.105529 0.230901 0.020765 
3.090000 0.039136 0.101339 0.228001 0.020443 
3.095000 0.040747 0.107140 0.230579 0.041070 
3.100000 0.037202 0.104562 0.231868 0.030434 
3.105000 0.038491 0.107462 0.228001 0.022054 
3.110000 0.034624 0.102306 0.229934 0.028500 
3.115000 0.036235 0.108429 0.231224 0.021410 
3.120000 0.040425 0.103917 0.228968 0.041070 
3.125000 0.034301 0.105529 0.228323 0.016575 
3.130000 0.035913 0.103595 0.226389 0.021087 
3.135000 0.033657 0.106173 0.232191 0.029789 
3.140000 0.037524 0.104884 0.229934 0.025277 
3.145000 0.035591 0.107140 0.229934 0.017864 
3.150000 0.037847 0.105851 0.228323 0.017220 
3.155000 0.037202 0.109396 0.233157 0.020765 
3.160000 0.040103 0.112619 0.231546 0.022699 
3.165000 0.037524 0.108429 0.231224 0.021410 
3.170000 0.034946 0.108752 0.230901 0.023666 
3.175000 0.040747 0.109718 0.230579 0.025599 
3.180000 0.038169 0.109718 0.232513 0.025922 